+ 0.1 1 2 cbr 1000 ------- 2 1.0 2.0 0 0
- 0.1 1 2 cbr 1000 ------- 2 1.0 2.0 0 0
+ 0.108 1 2 cbr 1000 ------- 2 1.0 2.0 1 1
- 0.108 1 2 cbr 1000 ------- 2 1.0 2.0 1 1
r 0.1108 1 2 cbr 1000 ------- 2 1.0 2.0 0 0
+ 0.116 1 2 cbr 1000 ------- 2 1.0 2.0 2 2
- 0.116 1 2 cbr 1000 ------- 2 1.0 2.0 2 2
r 0.1188 1 2 cbr 1000 ------- 2 1.0 2.0 1 1
+ 0.124 1 2 cbr 1000 ------- 2 1.0 2.0 3 3
- 0.124 1 2 cbr 1000 ------- 2 1.0 2.0 3 3
r 0.1268 1 2 cbr 1000 ------- 2 1.0 2.0 2 2
+ 0.132 1 2 cbr 1000 ------- 2 1.0 2.0 4 4
- 0.132 1 2 cbr 1000 ------- 2 1.0 2.0 4 4
r 0.1348 1 2 cbr 1000 ------- 2 1.0 2.0 3 3
+ 0.14 1 2 cbr 1000 ------- 2 1.0 2.0 5 5
- 0.14 1 2 cbr 1000 ------- 2 1.0 2.0 5 5
r 0.1428 1 2 cbr 1000 ------- 2 1.0 2.0 4 4
+ 0.148 1 2 cbr 1000 ------- 2 1.0 2.0 6 6
- 0.148 1 2 cbr 1000 ------- 2 1.0 2.0 6 6
r 0.1508 1 2 cbr 1000 ------- 2 1.0 2.0 5 5
+ 0.156 1 2 cbr 1000 ------- 2 1.0 2.0 7 7
- 0.156 1 2 cbr 1000 ------- 2 1.0 2.0 7 7
r 0.1588 1 2 cbr 1000 ------- 2 1.0 2.0 6 6
+ 0.164 1 2 cbr 1000 ------- 2 1.0 2.0 8 8
- 0.164 1 2 cbr 1000 ------- 2 1.0 2.0 8 8
r 0.1668 1 2 cbr 1000 ------- 2 1.0 2.0 7 7
+ 0.172 1 2 cbr 1000 ------- 2 1.0 2.0 9 9
- 0.172 1 2 cbr 1000 ------- 2 1.0 2.0 9 9
r 0.1748 1 2 cbr 1000 ------- 2 1.0 2.0 8 8
+ 0.18 1 2 cbr 1000 ------- 2 1.0 2.0 10 10
- 0.18 1 2 cbr 1000 ------- 2 1.0 2.0 10 10
r 0.1828 1 2 cbr 1000 ------- 2 1.0 2.0 9 9
+ 0.188 1 2 cbr 1000 ------- 2 1.0 2.0 11 11
- 0.188 1 2 cbr 1000 ------- 2 1.0 2.0 11 11
r 0.1908 1 2 cbr 1000 ------- 2 1.0 2.0 10 10
+ 0.196 1 2 cbr 1000 ------- 2 1.0 2.0 12 12
- 0.196 1 2 cbr 1000 ------- 2 1.0 2.0 12 12
r 0.1988 1 2 cbr 1000 ------- 2 1.0 2.0 11 11
+ 0.204 1 2 cbr 1000 ------- 2 1.0 2.0 13 13
- 0.204 1 2 cbr 1000 ------- 2 1.0 2.0 13 13
r 0.2068 1 2 cbr 1000 ------- 2 1.0 2.0 12 12
+ 0.212 1 2 cbr 1000 ------- 2 1.0 2.0 14 14
- 0.212 1 2 cbr 1000 ------- 2 1.0 2.0 14 14
r 0.2148 1 2 cbr 1000 ------- 2 1.0 2.0 13 13
+ 0.22 1 2 cbr 1000 ------- 2 1.0 2.0 15 15
- 0.22 1 2 cbr 1000 ------- 2 1.0 2.0 15 15
r 0.2228 1 2 cbr 1000 ------- 2 1.0 2.0 14 14
+ 0.228 1 2 cbr 1000 ------- 2 1.0 2.0 16 16
- 0.228 1 2 cbr 1000 ------- 2 1.0 2.0 16 16
r 0.2308 1 2 cbr 1000 ------- 2 1.0 2.0 15 15
+ 0.236 1 2 cbr 1000 ------- 2 1.0 2.0 17 17
- 0.236 1 2 cbr 1000 ------- 2 1.0 2.0 17 17
r 0.2388 1 2 cbr 1000 ------- 2 1.0 2.0 16 16
+ 0.244 1 2 cbr 1000 ------- 2 1.0 2.0 18 18
- 0.244 1 2 cbr 1000 ------- 2 1.0 2.0 18 18
r 0.2468 1 2 cbr 1000 ------- 2 1.0 2.0 17 17
+ 0.252 1 2 cbr 1000 ------- 2 1.0 2.0 19 19
- 0.252 1 2 cbr 1000 ------- 2 1.0 2.0 19 19
r 0.2548 1 2 cbr 1000 ------- 2 1.0 2.0 18 18
+ 0.26 1 2 cbr 1000 ------- 2 1.0 2.0 20 20
- 0.26 1 2 cbr 1000 ------- 2 1.0 2.0 20 20
r 0.2628 1 2 cbr 1000 ------- 2 1.0 2.0 19 19
+ 0.268 1 2 cbr 1000 ------- 2 1.0 2.0 21 21
- 0.268 1 2 cbr 1000 ------- 2 1.0 2.0 21 21
r 0.2708 1 2 cbr 1000 ------- 2 1.0 2.0 20 20
+ 0.276 1 2 cbr 1000 ------- 2 1.0 2.0 22 22
- 0.276 1 2 cbr 1000 ------- 2 1.0 2.0 22 22
r 0.2788 1 2 cbr 1000 ------- 2 1.0 2.0 21 21
+ 0.284 1 2 cbr 1000 ------- 2 1.0 2.0 23 23
- 0.284 1 2 cbr 1000 ------- 2 1.0 2.0 23 23
r 0.2868 1 2 cbr 1000 ------- 2 1.0 2.0 22 22
+ 0.292 1 2 cbr 1000 ------- 2 1.0 2.0 24 24
- 0.292 1 2 cbr 1000 ------- 2 1.0 2.0 24 24
r 0.2948 1 2 cbr 1000 ------- 2 1.0 2.0 23 23
+ 0.3 1 2 cbr 1000 ------- 2 1.0 2.0 25 25
- 0.3 1 2 cbr 1000 ------- 2 1.0 2.0 25 25
r 0.3028 1 2 cbr 1000 ------- 2 1.0 2.0 24 24
+ 0.308 1 2 cbr 1000 ------- 2 1.0 2.0 26 26
- 0.308 1 2 cbr 1000 ------- 2 1.0 2.0 26 26
r 0.3108 1 2 cbr 1000 ------- 2 1.0 2.0 25 25
+ 0.316 1 2 cbr 1000 ------- 2 1.0 2.0 27 27
- 0.316 1 2 cbr 1000 ------- 2 1.0 2.0 27 27
r 0.3188 1 2 cbr 1000 ------- 2 1.0 2.0 26 26
+ 0.324 1 2 cbr 1000 ------- 2 1.0 2.0 28 28
- 0.324 1 2 cbr 1000 ------- 2 1.0 2.0 28 28
r 0.3268 1 2 cbr 1000 ------- 2 1.0 2.0 27 27
+ 0.332 1 2 cbr 1000 ------- 2 1.0 2.0 29 29
- 0.332 1 2 cbr 1000 ------- 2 1.0 2.0 29 29
r 0.3348 1 2 cbr 1000 ------- 2 1.0 2.0 28 28
+ 0.34 1 2 cbr 1000 ------- 2 1.0 2.0 30 30
- 0.34 1 2 cbr 1000 ------- 2 1.0 2.0 30 30
r 0.3428 1 2 cbr 1000 ------- 2 1.0 2.0 29 29
+ 0.348 1 2 cbr 1000 ------- 2 1.0 2.0 31 31
- 0.348 1 2 cbr 1000 ------- 2 1.0 2.0 31 31
r 0.3508 1 2 cbr 1000 ------- 2 1.0 2.0 30 30
+ 0.356 1 2 cbr 1000 ------- 2 1.0 2.0 32 32
- 0.356 1 2 cbr 1000 ------- 2 1.0 2.0 32 32
r 0.3588 1 2 cbr 1000 ------- 2 1.0 2.0 31 31
+ 0.364 1 2 cbr 1000 ------- 2 1.0 2.0 33 33
- 0.364 1 2 cbr 1000 ------- 2 1.0 2.0 33 33
r 0.3668 1 2 cbr 1000 ------- 2 1.0 2.0 32 32
+ 0.372 1 2 cbr 1000 ------- 2 1.0 2.0 34 34
- 0.372 1 2 cbr 1000 ------- 2 1.0 2.0 34 34
r 0.3748 1 2 cbr 1000 ------- 2 1.0 2.0 33 33
+ 0.38 1 2 cbr 1000 ------- 2 1.0 2.0 35 35
- 0.38 1 2 cbr 1000 ------- 2 1.0 2.0 35 35
r 0.3828 1 2 cbr 1000 ------- 2 1.0 2.0 34 34
+ 0.388 1 2 cbr 1000 ------- 2 1.0 2.0 36 36
- 0.388 1 2 cbr 1000 ------- 2 1.0 2.0 36 36
r 0.3908 1 2 cbr 1000 ------- 2 1.0 2.0 35 35
+ 0.396 1 2 cbr 1000 ------- 2 1.0 2.0 37 37
- 0.396 1 2 cbr 1000 ------- 2 1.0 2.0 37 37
r 0.3988 1 2 cbr 1000 ------- 2 1.0 2.0 36 36
+ 0.404 1 2 cbr 1000 ------- 2 1.0 2.0 38 38
- 0.404 1 2 cbr 1000 ------- 2 1.0 2.0 38 38
r 0.4068 1 2 cbr 1000 ------- 2 1.0 2.0 37 37
+ 0.412 1 2 cbr 1000 ------- 2 1.0 2.0 39 39
- 0.412 1 2 cbr 1000 ------- 2 1.0 2.0 39 39
r 0.4148 1 2 cbr 1000 ------- 2 1.0 2.0 38 38
+ 0.42 1 2 cbr 1000 ------- 2 1.0 2.0 40 40
- 0.42 1 2 cbr 1000 ------- 2 1.0 2.0 40 40
r 0.4228 1 2 cbr 1000 ------- 2 1.0 2.0 39 39
+ 0.428 1 2 cbr 1000 ------- 2 1.0 2.0 41 41
- 0.428 1 2 cbr 1000 ------- 2 1.0 2.0 41 41
r 0.4308 1 2 cbr 1000 ------- 2 1.0 2.0 40 40
+ 0.436 1 2 cbr 1000 ------- 2 1.0 2.0 42 42
- 0.436 1 2 cbr 1000 ------- 2 1.0 2.0 42 42
r 0.4388 1 2 cbr 1000 ------- 2 1.0 2.0 41 41
+ 0.444 1 2 cbr 1000 ------- 2 1.0 2.0 43 43
- 0.444 1 2 cbr 1000 ------- 2 1.0 2.0 43 43
r 0.4468 1 2 cbr 1000 ------- 2 1.0 2.0 42 42
+ 0.452 1 2 cbr 1000 ------- 2 1.0 2.0 44 44
- 0.452 1 2 cbr 1000 ------- 2 1.0 2.0 44 44
r 0.4548 1 2 cbr 1000 ------- 2 1.0 2.0 43 43
+ 0.46 1 2 cbr 1000 ------- 2 1.0 2.0 45 45
- 0.46 1 2 cbr 1000 ------- 2 1.0 2.0 45 45
r 0.4628 1 2 cbr 1000 ------- 2 1.0 2.0 44 44
+ 0.468 1 2 cbr 1000 ------- 2 1.0 2.0 46 46
- 0.468 1 2 cbr 1000 ------- 2 1.0 2.0 46 46
r 0.4708 1 2 cbr 1000 ------- 2 1.0 2.0 45 45
+ 0.476 1 2 cbr 1000 ------- 2 1.0 2.0 47 47
- 0.476 1 2 cbr 1000 ------- 2 1.0 2.0 47 47
r 0.4788 1 2 cbr 1000 ------- 2 1.0 2.0 46 46
+ 0.484 1 2 cbr 1000 ------- 2 1.0 2.0 48 48
- 0.484 1 2 cbr 1000 ------- 2 1.0 2.0 48 48
r 0.4868 1 2 cbr 1000 ------- 2 1.0 2.0 47 47
+ 0.492 1 2 cbr 1000 ------- 2 1.0 2.0 49 49
- 0.492 1 2 cbr 1000 ------- 2 1.0 2.0 49 49
r 0.4948 1 2 cbr 1000 ------- 2 1.0 2.0 48 48
+ 0.5 1 2 cbr 1000 ------- 2 1.0 2.0 50 50
- 0.5 1 2 cbr 1000 ------- 2 1.0 2.0 50 50
r 0.5028 1 2 cbr 1000 ------- 2 1.0 2.0 49 49
+ 0.508 1 2 cbr 1000 ------- 2 1.0 2.0 51 51
- 0.508 1 2 cbr 1000 ------- 2 1.0 2.0 51 51
r 0.5108 1 2 cbr 1000 ------- 2 1.0 2.0 50 50
+ 0.516 1 2 cbr 1000 ------- 2 1.0 2.0 52 52
- 0.516 1 2 cbr 1000 ------- 2 1.0 2.0 52 52
r 0.5188 1 2 cbr 1000 ------- 2 1.0 2.0 51 51
+ 0.524 1 2 cbr 1000 ------- 2 1.0 2.0 53 53
- 0.524 1 2 cbr 1000 ------- 2 1.0 2.0 53 53
r 0.5268 1 2 cbr 1000 ------- 2 1.0 2.0 52 52
+ 0.532 1 2 cbr 1000 ------- 2 1.0 2.0 54 54
- 0.532 1 2 cbr 1000 ------- 2 1.0 2.0 54 54
r 0.5348 1 2 cbr 1000 ------- 2 1.0 2.0 53 53
+ 0.54 1 2 cbr 1000 ------- 2 1.0 2.0 55 55
- 0.54 1 2 cbr 1000 ------- 2 1.0 2.0 55 55
r 0.5428 1 2 cbr 1000 ------- 2 1.0 2.0 54 54
+ 0.548 1 2 cbr 1000 ------- 2 1.0 2.0 56 56
- 0.548 1 2 cbr 1000 ------- 2 1.0 2.0 56 56
r 0.5508 1 2 cbr 1000 ------- 2 1.0 2.0 55 55
+ 0.556 1 2 cbr 1000 ------- 2 1.0 2.0 57 57
- 0.556 1 2 cbr 1000 ------- 2 1.0 2.0 57 57
r 0.5588 1 2 cbr 1000 ------- 2 1.0 2.0 56 56
+ 0.564 1 2 cbr 1000 ------- 2 1.0 2.0 58 58
- 0.564 1 2 cbr 1000 ------- 2 1.0 2.0 58 58
r 0.5668 1 2 cbr 1000 ------- 2 1.0 2.0 57 57
+ 0.572 1 2 cbr 1000 ------- 2 1.0 2.0 59 59
- 0.572 1 2 cbr 1000 ------- 2 1.0 2.0 59 59
r 0.5748 1 2 cbr 1000 ------- 2 1.0 2.0 58 58
+ 0.58 1 2 cbr 1000 ------- 2 1.0 2.0 60 60
- 0.58 1 2 cbr 1000 ------- 2 1.0 2.0 60 60
r 0.5828 1 2 cbr 1000 ------- 2 1.0 2.0 59 59
+ 0.588 1 2 cbr 1000 ------- 2 1.0 2.0 61 61
- 0.588 1 2 cbr 1000 ------- 2 1.0 2.0 61 61
r 0.5908 1 2 cbr 1000 ------- 2 1.0 2.0 60 60
+ 0.596 1 2 cbr 1000 ------- 2 1.0 2.0 62 62
- 0.596 1 2 cbr 1000 ------- 2 1.0 2.0 62 62
r 0.5988 1 2 cbr 1000 ------- 2 1.0 2.0 61 61
+ 0.604 1 2 cbr 1000 ------- 2 1.0 2.0 63 63
- 0.604 1 2 cbr 1000 ------- 2 1.0 2.0 63 63
r 0.6068 1 2 cbr 1000 ------- 2 1.0 2.0 62 62
+ 0.612 1 2 cbr 1000 ------- 2 1.0 2.0 64 64
- 0.612 1 2 cbr 1000 ------- 2 1.0 2.0 64 64
r 0.6148 1 2 cbr 1000 ------- 2 1.0 2.0 63 63
+ 0.62 1 2 cbr 1000 ------- 2 1.0 2.0 65 65
- 0.62 1 2 cbr 1000 ------- 2 1.0 2.0 65 65
r 0.6228 1 2 cbr 1000 ------- 2 1.0 2.0 64 64
+ 0.628 1 2 cbr 1000 ------- 2 1.0 2.0 66 66
- 0.628 1 2 cbr 1000 ------- 2 1.0 2.0 66 66
r 0.6308 1 2 cbr 1000 ------- 2 1.0 2.0 65 65
+ 0.636 1 2 cbr 1000 ------- 2 1.0 2.0 67 67
- 0.636 1 2 cbr 1000 ------- 2 1.0 2.0 67 67
r 0.6388 1 2 cbr 1000 ------- 2 1.0 2.0 66 66
+ 0.644 1 2 cbr 1000 ------- 2 1.0 2.0 68 68
- 0.644 1 2 cbr 1000 ------- 2 1.0 2.0 68 68
r 0.6468 1 2 cbr 1000 ------- 2 1.0 2.0 67 67
+ 0.652 1 2 cbr 1000 ------- 2 1.0 2.0 69 69
- 0.652 1 2 cbr 1000 ------- 2 1.0 2.0 69 69
r 0.6548 1 2 cbr 1000 ------- 2 1.0 2.0 68 68
+ 0.66 1 2 cbr 1000 ------- 2 1.0 2.0 70 70
- 0.66 1 2 cbr 1000 ------- 2 1.0 2.0 70 70
r 0.6628 1 2 cbr 1000 ------- 2 1.0 2.0 69 69
+ 0.668 1 2 cbr 1000 ------- 2 1.0 2.0 71 71
- 0.668 1 2 cbr 1000 ------- 2 1.0 2.0 71 71
r 0.6708 1 2 cbr 1000 ------- 2 1.0 2.0 70 70
+ 0.676 1 2 cbr 1000 ------- 2 1.0 2.0 72 72
- 0.676 1 2 cbr 1000 ------- 2 1.0 2.0 72 72
r 0.6788 1 2 cbr 1000 ------- 2 1.0 2.0 71 71
+ 0.684 1 2 cbr 1000 ------- 2 1.0 2.0 73 73
- 0.684 1 2 cbr 1000 ------- 2 1.0 2.0 73 73
r 0.6868 1 2 cbr 1000 ------- 2 1.0 2.0 72 72
+ 0.692 1 2 cbr 1000 ------- 2 1.0 2.0 74 74
- 0.692 1 2 cbr 1000 ------- 2 1.0 2.0 74 74
r 0.6948 1 2 cbr 1000 ------- 2 1.0 2.0 73 73
+ 0.7 1 2 cbr 1000 ------- 2 1.0 2.0 75 75
- 0.7 1 2 cbr 1000 ------- 2 1.0 2.0 75 75
r 0.7028 1 2 cbr 1000 ------- 2 1.0 2.0 74 74
+ 0.708 1 2 cbr 1000 ------- 2 1.0 2.0 76 76
- 0.708 1 2 cbr 1000 ------- 2 1.0 2.0 76 76
r 0.7108 1 2 cbr 1000 ------- 2 1.0 2.0 75 75
+ 0.716 1 2 cbr 1000 ------- 2 1.0 2.0 77 77
- 0.716 1 2 cbr 1000 ------- 2 1.0 2.0 77 77
r 0.7188 1 2 cbr 1000 ------- 2 1.0 2.0 76 76
+ 0.724 1 2 cbr 1000 ------- 2 1.0 2.0 78 78
- 0.724 1 2 cbr 1000 ------- 2 1.0 2.0 78 78
r 0.7268 1 2 cbr 1000 ------- 2 1.0 2.0 77 77
+ 0.732 1 2 cbr 1000 ------- 2 1.0 2.0 79 79
- 0.732 1 2 cbr 1000 ------- 2 1.0 2.0 79 79
r 0.7348 1 2 cbr 1000 ------- 2 1.0 2.0 78 78
+ 0.74 1 2 cbr 1000 ------- 2 1.0 2.0 80 80
- 0.74 1 2 cbr 1000 ------- 2 1.0 2.0 80 80
r 0.7428 1 2 cbr 1000 ------- 2 1.0 2.0 79 79
+ 0.748 1 2 cbr 1000 ------- 2 1.0 2.0 81 81
- 0.748 1 2 cbr 1000 ------- 2 1.0 2.0 81 81
r 0.7508 1 2 cbr 1000 ------- 2 1.0 2.0 80 80
+ 0.756 1 2 cbr 1000 ------- 2 1.0 2.0 82 82
- 0.756 1 2 cbr 1000 ------- 2 1.0 2.0 82 82
r 0.7588 1 2 cbr 1000 ------- 2 1.0 2.0 81 81
+ 0.764 1 2 cbr 1000 ------- 2 1.0 2.0 83 83
- 0.764 1 2 cbr 1000 ------- 2 1.0 2.0 83 83
r 0.7668 1 2 cbr 1000 ------- 2 1.0 2.0 82 82
+ 0.772 1 2 cbr 1000 ------- 2 1.0 2.0 84 84
- 0.772 1 2 cbr 1000 ------- 2 1.0 2.0 84 84
r 0.7748 1 2 cbr 1000 ------- 2 1.0 2.0 83 83
+ 0.78 1 2 cbr 1000 ------- 2 1.0 2.0 85 85
- 0.78 1 2 cbr 1000 ------- 2 1.0 2.0 85 85
r 0.7828 1 2 cbr 1000 ------- 2 1.0 2.0 84 84
+ 0.788 1 2 cbr 1000 ------- 2 1.0 2.0 86 86
- 0.788 1 2 cbr 1000 ------- 2 1.0 2.0 86 86
r 0.7908 1 2 cbr 1000 ------- 2 1.0 2.0 85 85
+ 0.796 1 2 cbr 1000 ------- 2 1.0 2.0 87 87
- 0.796 1 2 cbr 1000 ------- 2 1.0 2.0 87 87
r 0.7988 1 2 cbr 1000 ------- 2 1.0 2.0 86 86
+ 0.804 1 2 cbr 1000 ------- 2 1.0 2.0 88 88
- 0.804 1 2 cbr 1000 ------- 2 1.0 2.0 88 88
r 0.8068 1 2 cbr 1000 ------- 2 1.0 2.0 87 87
+ 0.812 1 2 cbr 1000 ------- 2 1.0 2.0 89 89
- 0.812 1 2 cbr 1000 ------- 2 1.0 2.0 89 89
r 0.8148 1 2 cbr 1000 ------- 2 1.0 2.0 88 88
+ 0.82 1 2 cbr 1000 ------- 2 1.0 2.0 90 90
- 0.82 1 2 cbr 1000 ------- 2 1.0 2.0 90 90
r 0.8228 1 2 cbr 1000 ------- 2 1.0 2.0 89 89
+ 0.828 1 2 cbr 1000 ------- 2 1.0 2.0 91 91
- 0.828 1 2 cbr 1000 ------- 2 1.0 2.0 91 91
r 0.8308 1 2 cbr 1000 ------- 2 1.0 2.0 90 90
+ 0.836 1 2 cbr 1000 ------- 2 1.0 2.0 92 92
- 0.836 1 2 cbr 1000 ------- 2 1.0 2.0 92 92
r 0.8388 1 2 cbr 1000 ------- 2 1.0 2.0 91 91
+ 0.844 1 2 cbr 1000 ------- 2 1.0 2.0 93 93
- 0.844 1 2 cbr 1000 ------- 2 1.0 2.0 93 93
r 0.8468 1 2 cbr 1000 ------- 2 1.0 2.0 92 92
+ 0.852 1 2 cbr 1000 ------- 2 1.0 2.0 94 94
- 0.852 1 2 cbr 1000 ------- 2 1.0 2.0 94 94
r 0.8548 1 2 cbr 1000 ------- 2 1.0 2.0 93 93
+ 0.86 1 2 cbr 1000 ------- 2 1.0 2.0 95 95
- 0.86 1 2 cbr 1000 ------- 2 1.0 2.0 95 95
r 0.8628 1 2 cbr 1000 ------- 2 1.0 2.0 94 94
+ 0.868 1 2 cbr 1000 ------- 2 1.0 2.0 96 96
- 0.868 1 2 cbr 1000 ------- 2 1.0 2.0 96 96
r 0.8708 1 2 cbr 1000 ------- 2 1.0 2.0 95 95
+ 0.876 1 2 cbr 1000 ------- 2 1.0 2.0 97 97
- 0.876 1 2 cbr 1000 ------- 2 1.0 2.0 97 97
r 0.8788 1 2 cbr 1000 ------- 2 1.0 2.0 96 96
+ 0.884 1 2 cbr 1000 ------- 2 1.0 2.0 98 98
- 0.884 1 2 cbr 1000 ------- 2 1.0 2.0 98 98
r 0.8868 1 2 cbr 1000 ------- 2 1.0 2.0 97 97
+ 0.892 1 2 cbr 1000 ------- 2 1.0 2.0 99 99
- 0.892 1 2 cbr 1000 ------- 2 1.0 2.0 99 99
r 0.8948 1 2 cbr 1000 ------- 2 1.0 2.0 98 98
+ 0.9 1 2 cbr 1000 ------- 2 1.0 2.0 100 100
- 0.9 1 2 cbr 1000 ------- 2 1.0 2.0 100 100
r 0.9028 1 2 cbr 1000 ------- 2 1.0 2.0 99 99
+ 0.908 1 2 cbr 1000 ------- 2 1.0 2.0 101 101
- 0.908 1 2 cbr 1000 ------- 2 1.0 2.0 101 101
r 0.9108 1 2 cbr 1000 ------- 2 1.0 2.0 100 100
+ 0.916 1 2 cbr 1000 ------- 2 1.0 2.0 102 102
- 0.916 1 2 cbr 1000 ------- 2 1.0 2.0 102 102
r 0.9188 1 2 cbr 1000 ------- 2 1.0 2.0 101 101
+ 0.924 1 2 cbr 1000 ------- 2 1.0 2.0 103 103
- 0.924 1 2 cbr 1000 ------- 2 1.0 2.0 103 103
r 0.9268 1 2 cbr 1000 ------- 2 1.0 2.0 102 102
+ 0.932 1 2 cbr 1000 ------- 2 1.0 2.0 104 104
- 0.932 1 2 cbr 1000 ------- 2 1.0 2.0 104 104
r 0.9348 1 2 cbr 1000 ------- 2 1.0 2.0 103 103
+ 0.94 1 2 cbr 1000 ------- 2 1.0 2.0 105 105
- 0.94 1 2 cbr 1000 ------- 2 1.0 2.0 105 105
r 0.9428 1 2 cbr 1000 ------- 2 1.0 2.0 104 104
+ 0.948 1 2 cbr 1000 ------- 2 1.0 2.0 106 106
- 0.948 1 2 cbr 1000 ------- 2 1.0 2.0 106 106
r 0.9508 1 2 cbr 1000 ------- 2 1.0 2.0 105 105
+ 0.956 1 2 cbr 1000 ------- 2 1.0 2.0 107 107
- 0.956 1 2 cbr 1000 ------- 2 1.0 2.0 107 107
r 0.9588 1 2 cbr 1000 ------- 2 1.0 2.0 106 106
+ 0.964 1 2 cbr 1000 ------- 2 1.0 2.0 108 108
- 0.964 1 2 cbr 1000 ------- 2 1.0 2.0 108 108
r 0.9668 1 2 cbr 1000 ------- 2 1.0 2.0 107 107
+ 0.972 1 2 cbr 1000 ------- 2 1.0 2.0 109 109
- 0.972 1 2 cbr 1000 ------- 2 1.0 2.0 109 109
r 0.9748 1 2 cbr 1000 ------- 2 1.0 2.0 108 108
+ 0.98 1 2 cbr 1000 ------- 2 1.0 2.0 110 110
- 0.98 1 2 cbr 1000 ------- 2 1.0 2.0 110 110
r 0.9828 1 2 cbr 1000 ------- 2 1.0 2.0 109 109
+ 0.988 1 2 cbr 1000 ------- 2 1.0 2.0 111 111
- 0.988 1 2 cbr 1000 ------- 2 1.0 2.0 111 111
r 0.9908 1 2 cbr 1000 ------- 2 1.0 2.0 110 110
+ 0.996 1 2 cbr 1000 ------- 2 1.0 2.0 112 112
- 0.996 1 2 cbr 1000 ------- 2 1.0 2.0 112 112
r 0.9988 1 2 cbr 1000 ------- 2 1.0 2.0 111 111
+ 1 0 1 tcp 40 ------- 1 0.0 3.0 0 113
- 1 0 1 tcp 40 ------- 1 0.0 3.0 0 113
+ 1 4 1 tcp 40 ------- 3 4.0 5.0 0 114
- 1 4 1 tcp 40 ------- 3 4.0 5.0 0 114
+ 1.004 1 2 cbr 1000 ------- 2 1.0 2.0 113 115
- 1.004 1 2 cbr 1000 ------- 2 1.0 2.0 113 115
r 1.0068 1 2 cbr 1000 ------- 2 1.0 2.0 112 112
r 1.010032 0 1 tcp 40 ------- 1 0.0 3.0 0 113
+ 1.010032 1 2 tcp 40 ------- 1 0.0 3.0 0 113
- 1.010032 1 2 tcp 40 ------- 1 0.0 3.0 0 113
r 1.010032 4 1 tcp 40 ------- 3 4.0 5.0 0 114
+ 1.010032 1 2 tcp 40 ------- 3 4.0 5.0 0 114
- 1.010064 1 2 tcp 40 ------- 3 4.0 5.0 0 114
+ 1.012 1 2 cbr 1000 ------- 2 1.0 2.0 114 116
- 1.012 1 2 cbr 1000 ------- 2 1.0 2.0 114 116
r 1.0148 1 2 cbr 1000 ------- 2 1.0 2.0 113 115
+ 1.02 1 2 cbr 1000 ------- 2 1.0 2.0 115 117
- 1.02 1 2 cbr 1000 ------- 2 1.0 2.0 115 117
r 1.020064 1 2 tcp 40 ------- 1 0.0 3.0 0 113
+ 1.020064 2 3 tcp 40 ------- 1 0.0 3.0 0 113
- 1.020064 2 3 tcp 40 ------- 1 0.0 3.0 0 113
r 1.020096 1 2 tcp 40 ------- 3 4.0 5.0 0 114
+ 1.020096 2 5 tcp 40 ------- 3 4.0 5.0 0 114
- 1.020096 2 5 tcp 40 ------- 3 4.0 5.0 0 114
r 1.0228 1 2 cbr 1000 ------- 2 1.0 2.0 114 116
+ 1.028 1 2 cbr 1000 ------- 2 1.0 2.0 116 118
- 1.028 1 2 cbr 1000 ------- 2 1.0 2.0 116 118
r 1.030096 2 3 tcp 40 ------- 1 0.0 3.0 0 113
+ 1.030096 3 2 ack 40 ------- 1 3.0 0.0 0 119
- 1.030096 3 2 ack 40 ------- 1 3.0 0.0 0 119
r 1.030128 2 5 tcp 40 ------- 3 4.0 5.0 0 114
+ 1.030128 5 2 ack 40 ------- 3 5.0 4.0 0 120
- 1.030128 5 2 ack 40 ------- 3 5.0 4.0 0 120
r 1.0308 1 2 cbr 1000 ------- 2 1.0 2.0 115 117
+ 1.036 1 2 cbr 1000 ------- 2 1.0 2.0 117 121
- 1.036 1 2 cbr 1000 ------- 2 1.0 2.0 117 121
r 1.0388 1 2 cbr 1000 ------- 2 1.0 2.0 116 118
r 1.040128 3 2 ack 40 ------- 1 3.0 0.0 0 119
+ 1.040128 2 1 ack 40 ------- 1 3.0 0.0 0 119
- 1.040128 2 1 ack 40 ------- 1 3.0 0.0 0 119
r 1.04016 5 2 ack 40 ------- 3 5.0 4.0 0 120
+ 1.04016 2 1 ack 40 ------- 3 5.0 4.0 0 120
- 1.04016 2 1 ack 40 ------- 3 5.0 4.0 0 120
+ 1.044 1 2 cbr 1000 ------- 2 1.0 2.0 118 122
- 1.044 1 2 cbr 1000 ------- 2 1.0 2.0 118 122
r 1.0468 1 2 cbr 1000 ------- 2 1.0 2.0 117 121
r 1.05016 2 1 ack 40 ------- 1 3.0 0.0 0 119
+ 1.05016 1 0 ack 40 ------- 1 3.0 0.0 0 119
- 1.05016 1 0 ack 40 ------- 1 3.0 0.0 0 119
r 1.050192 2 1 ack 40 ------- 3 5.0 4.0 0 120
+ 1.050192 1 4 ack 40 ------- 3 5.0 4.0 0 120
- 1.050192 1 4 ack 40 ------- 3 5.0 4.0 0 120
+ 1.052 1 2 cbr 1000 ------- 2 1.0 2.0 119 123
- 1.052 1 2 cbr 1000 ------- 2 1.0 2.0 119 123
r 1.0548 1 2 cbr 1000 ------- 2 1.0 2.0 118 122
+ 1.06 1 2 cbr 1000 ------- 2 1.0 2.0 120 124
- 1.06 1 2 cbr 1000 ------- 2 1.0 2.0 120 124
r 1.060192 1 0 ack 40 ------- 1 3.0 0.0 0 119
+ 1.060192 0 1 tcp 1040 ------- 1 0.0 3.0 1 125
- 1.060192 0 1 tcp 1040 ------- 1 0.0 3.0 1 125
+ 1.060192 0 1 tcp 1040 ------- 1 0.0 3.0 2 126
r 1.060224 1 4 ack 40 ------- 3 5.0 4.0 0 120
+ 1.060224 4 1 tcp 1040 ------- 3 4.0 5.0 1 127
- 1.060224 4 1 tcp 1040 ------- 3 4.0 5.0 1 127
+ 1.060224 4 1 tcp 1040 ------- 3 4.0 5.0 2 128
- 1.061024 0 1 tcp 1040 ------- 1 0.0 3.0 2 126
- 1.061056 4 1 tcp 1040 ------- 3 4.0 5.0 2 128
r 1.0628 1 2 cbr 1000 ------- 2 1.0 2.0 119 123
+ 1.068 1 2 cbr 1000 ------- 2 1.0 2.0 121 129
- 1.068 1 2 cbr 1000 ------- 2 1.0 2.0 121 129
r 1.0708 1 2 cbr 1000 ------- 2 1.0 2.0 120 124
r 1.071024 0 1 tcp 1040 ------- 1 0.0 3.0 1 125
+ 1.071024 1 2 tcp 1040 ------- 1 0.0 3.0 1 125
- 1.071024 1 2 tcp 1040 ------- 1 0.0 3.0 1 125
r 1.071056 4 1 tcp 1040 ------- 3 4.0 5.0 1 127
+ 1.071056 1 2 tcp 1040 ------- 3 4.0 5.0 1 127
r 1.071856 0 1 tcp 1040 ------- 1 0.0 3.0 2 126
+ 1.071856 1 2 tcp 1040 ------- 1 0.0 3.0 2 126
- 1.071856 1 2 tcp 1040 ------- 3 4.0 5.0 1 127
r 1.071888 4 1 tcp 1040 ------- 3 4.0 5.0 2 128
+ 1.071888 1 2 tcp 1040 ------- 3 4.0 5.0 2 128
- 1.072688 1 2 tcp 1040 ------- 1 0.0 3.0 2 126
- 1.07352 1 2 tcp 1040 ------- 3 4.0 5.0 2 128
+ 1.076 1 2 cbr 1000 ------- 2 1.0 2.0 122 130
- 1.076 1 2 cbr 1000 ------- 2 1.0 2.0 122 130
r 1.0788 1 2 cbr 1000 ------- 2 1.0 2.0 121 129
r 1.081856 1 2 tcp 1040 ------- 1 0.0 3.0 1 125
+ 1.081856 2 3 tcp 1040 ------- 1 0.0 3.0 1 125
- 1.081856 2 3 tcp 1040 ------- 1 0.0 3.0 1 125
r 1.082688 1 2 tcp 1040 ------- 3 4.0 5.0 1 127
+ 1.082688 2 5 tcp 1040 ------- 3 4.0 5.0 1 127
- 1.082688 2 5 tcp 1040 ------- 3 4.0 5.0 1 127
r 1.08352 1 2 tcp 1040 ------- 1 0.0 3.0 2 126
+ 1.08352 2 3 tcp 1040 ------- 1 0.0 3.0 2 126
- 1.08352 2 3 tcp 1040 ------- 1 0.0 3.0 2 126
+ 1.084 1 2 cbr 1000 ------- 2 1.0 2.0 123 131
- 1.084 1 2 cbr 1000 ------- 2 1.0 2.0 123 131
r 1.084352 1 2 tcp 1040 ------- 3 4.0 5.0 2 128
+ 1.084352 2 5 tcp 1040 ------- 3 4.0 5.0 2 128
- 1.084352 2 5 tcp 1040 ------- 3 4.0 5.0 2 128
r 1.0868 1 2 cbr 1000 ------- 2 1.0 2.0 122 130
+ 1.092 1 2 cbr 1000 ------- 2 1.0 2.0 124 132
- 1.092 1 2 cbr 1000 ------- 2 1.0 2.0 124 132
r 1.092688 2 3 tcp 1040 ------- 1 0.0 3.0 1 125
+ 1.092688 3 2 ack 40 ------- 1 3.0 0.0 1 133
- 1.092688 3 2 ack 40 ------- 1 3.0 0.0 1 133
r 1.09352 2 5 tcp 1040 ------- 3 4.0 5.0 1 127
+ 1.09352 5 2 ack 40 ------- 3 5.0 4.0 1 134
- 1.09352 5 2 ack 40 ------- 3 5.0 4.0 1 134
r 1.094352 2 3 tcp 1040 ------- 1 0.0 3.0 2 126
+ 1.094352 3 2 ack 40 ------- 1 3.0 0.0 2 135
- 1.094352 3 2 ack 40 ------- 1 3.0 0.0 2 135
r 1.0948 1 2 cbr 1000 ------- 2 1.0 2.0 123 131
r 1.095184 2 5 tcp 1040 ------- 3 4.0 5.0 2 128
+ 1.095184 5 2 ack 40 ------- 3 5.0 4.0 2 136
- 1.095184 5 2 ack 40 ------- 3 5.0 4.0 2 136
+ 1.1 1 2 cbr 1000 ------- 2 1.0 2.0 125 137
- 1.1 1 2 cbr 1000 ------- 2 1.0 2.0 125 137
r 1.10272 3 2 ack 40 ------- 1 3.0 0.0 1 133
+ 1.10272 2 1 ack 40 ------- 1 3.0 0.0 1 133
- 1.10272 2 1 ack 40 ------- 1 3.0 0.0 1 133
r 1.1028 1 2 cbr 1000 ------- 2 1.0 2.0 124 132
r 1.103552 5 2 ack 40 ------- 3 5.0 4.0 1 134
+ 1.103552 2 1 ack 40 ------- 3 5.0 4.0 1 134
- 1.103552 2 1 ack 40 ------- 3 5.0 4.0 1 134
r 1.104384 3 2 ack 40 ------- 1 3.0 0.0 2 135
+ 1.104384 2 1 ack 40 ------- 1 3.0 0.0 2 135
- 1.104384 2 1 ack 40 ------- 1 3.0 0.0 2 135
r 1.105216 5 2 ack 40 ------- 3 5.0 4.0 2 136
+ 1.105216 2 1 ack 40 ------- 3 5.0 4.0 2 136
- 1.105216 2 1 ack 40 ------- 3 5.0 4.0 2 136
+ 1.108 1 2 cbr 1000 ------- 2 1.0 2.0 126 138
- 1.108 1 2 cbr 1000 ------- 2 1.0 2.0 126 138
r 1.1108 1 2 cbr 1000 ------- 2 1.0 2.0 125 137
r 1.112752 2 1 ack 40 ------- 1 3.0 0.0 1 133
+ 1.112752 1 0 ack 40 ------- 1 3.0 0.0 1 133
- 1.112752 1 0 ack 40 ------- 1 3.0 0.0 1 133
r 1.113584 2 1 ack 40 ------- 3 5.0 4.0 1 134
+ 1.113584 1 4 ack 40 ------- 3 5.0 4.0 1 134
- 1.113584 1 4 ack 40 ------- 3 5.0 4.0 1 134
r 1.114416 2 1 ack 40 ------- 1 3.0 0.0 2 135
+ 1.114416 1 0 ack 40 ------- 1 3.0 0.0 2 135
- 1.114416 1 0 ack 40 ------- 1 3.0 0.0 2 135
r 1.115248 2 1 ack 40 ------- 3 5.0 4.0 2 136
+ 1.115248 1 4 ack 40 ------- 3 5.0 4.0 2 136
- 1.115248 1 4 ack 40 ------- 3 5.0 4.0 2 136
+ 1.116 1 2 cbr 1000 ------- 2 1.0 2.0 127 139
- 1.116 1 2 cbr 1000 ------- 2 1.0 2.0 127 139
r 1.1188 1 2 cbr 1000 ------- 2 1.0 2.0 126 138
r 1.122784 1 0 ack 40 ------- 1 3.0 0.0 1 133
+ 1.122784 0 1 tcp 1040 ------- 1 0.0 3.0 3 140
- 1.122784 0 1 tcp 1040 ------- 1 0.0 3.0 3 140
+ 1.122784 0 1 tcp 1040 ------- 1 0.0 3.0 4 141
r 1.123616 1 4 ack 40 ------- 3 5.0 4.0 1 134
+ 1.123616 4 1 tcp 1040 ------- 3 4.0 5.0 3 142
- 1.123616 4 1 tcp 1040 ------- 3 4.0 5.0 3 142
+ 1.123616 4 1 tcp 1040 ------- 3 4.0 5.0 4 143
- 1.123616 0 1 tcp 1040 ------- 1 0.0 3.0 4 141
+ 1.124 1 2 cbr 1000 ------- 2 1.0 2.0 128 144
- 1.124 1 2 cbr 1000 ------- 2 1.0 2.0 128 144
r 1.124448 1 0 ack 40 ------- 1 3.0 0.0 2 135
+ 1.124448 0 1 tcp 1040 ------- 1 0.0 3.0 5 145
+ 1.124448 0 1 tcp 1040 ------- 1 0.0 3.0 6 146
- 1.124448 4 1 tcp 1040 ------- 3 4.0 5.0 4 143
- 1.124448 0 1 tcp 1040 ------- 1 0.0 3.0 5 145
r 1.12528 1 4 ack 40 ------- 3 5.0 4.0 2 136
+ 1.12528 4 1 tcp 1040 ------- 3 4.0 5.0 5 147
+ 1.12528 4 1 tcp 1040 ------- 3 4.0 5.0 6 148
- 1.12528 4 1 tcp 1040 ------- 3 4.0 5.0 5 147
- 1.12528 0 1 tcp 1040 ------- 1 0.0 3.0 6 146
- 1.126112 4 1 tcp 1040 ------- 3 4.0 5.0 6 148
r 1.1268 1 2 cbr 1000 ------- 2 1.0 2.0 127 139
+ 1.132 1 2 cbr 1000 ------- 2 1.0 2.0 129 149
- 1.132 1 2 cbr 1000 ------- 2 1.0 2.0 129 149
r 1.133616 0 1 tcp 1040 ------- 1 0.0 3.0 3 140
+ 1.133616 1 2 tcp 1040 ------- 1 0.0 3.0 3 140
- 1.133616 1 2 tcp 1040 ------- 1 0.0 3.0 3 140
r 1.134448 4 1 tcp 1040 ------- 3 4.0 5.0 3 142
+ 1.134448 1 2 tcp 1040 ------- 3 4.0 5.0 3 142
r 1.134448 0 1 tcp 1040 ------- 1 0.0 3.0 4 141
+ 1.134448 1 2 tcp 1040 ------- 1 0.0 3.0 4 141
- 1.134448 1 2 tcp 1040 ------- 3 4.0 5.0 3 142
r 1.1348 1 2 cbr 1000 ------- 2 1.0 2.0 128 144
r 1.13528 4 1 tcp 1040 ------- 3 4.0 5.0 4 143
+ 1.13528 1 2 tcp 1040 ------- 3 4.0 5.0 4 143
r 1.13528 0 1 tcp 1040 ------- 1 0.0 3.0 5 145
+ 1.13528 1 2 tcp 1040 ------- 1 0.0 3.0 5 145
- 1.13528 1 2 tcp 1040 ------- 1 0.0 3.0 4 141
r 1.136112 4 1 tcp 1040 ------- 3 4.0 5.0 5 147
+ 1.136112 1 2 tcp 1040 ------- 3 4.0 5.0 5 147
r 1.136112 0 1 tcp 1040 ------- 1 0.0 3.0 6 146
+ 1.136112 1 2 tcp 1040 ------- 1 0.0 3.0 6 146
- 1.136112 1 2 tcp 1040 ------- 3 4.0 5.0 4 143
r 1.136944 4 1 tcp 1040 ------- 3 4.0 5.0 6 148
+ 1.136944 1 2 tcp 1040 ------- 3 4.0 5.0 6 148
- 1.136944 1 2 tcp 1040 ------- 1 0.0 3.0 5 145
- 1.137776 1 2 tcp 1040 ------- 3 4.0 5.0 5 147
- 1.138608 1 2 tcp 1040 ------- 1 0.0 3.0 6 146
- 1.13944 1 2 tcp 1040 ------- 3 4.0 5.0 6 148
+ 1.14 1 2 cbr 1000 ------- 2 1.0 2.0 130 150
- 1.140272 1 2 cbr 1000 ------- 2 1.0 2.0 130 150
r 1.1428 1 2 cbr 1000 ------- 2 1.0 2.0 129 149
r 1.144448 1 2 tcp 1040 ------- 1 0.0 3.0 3 140
+ 1.144448 2 3 tcp 1040 ------- 1 0.0 3.0 3 140
- 1.144448 2 3 tcp 1040 ------- 1 0.0 3.0 3 140
r 1.14528 1 2 tcp 1040 ------- 3 4.0 5.0 3 142
+ 1.14528 2 5 tcp 1040 ------- 3 4.0 5.0 3 142
- 1.14528 2 5 tcp 1040 ------- 3 4.0 5.0 3 142
r 1.146112 1 2 tcp 1040 ------- 1 0.0 3.0 4 141
+ 1.146112 2 3 tcp 1040 ------- 1 0.0 3.0 4 141
- 1.146112 2 3 tcp 1040 ------- 1 0.0 3.0 4 141
r 1.146944 1 2 tcp 1040 ------- 3 4.0 5.0 4 143
+ 1.146944 2 5 tcp 1040 ------- 3 4.0 5.0 4 143
- 1.146944 2 5 tcp 1040 ------- 3 4.0 5.0 4 143
r 1.147776 1 2 tcp 1040 ------- 1 0.0 3.0 5 145
+ 1.147776 2 3 tcp 1040 ------- 1 0.0 3.0 5 145
- 1.147776 2 3 tcp 1040 ------- 1 0.0 3.0 5 145
+ 1.148 1 2 cbr 1000 ------- 2 1.0 2.0 131 151
- 1.148 1 2 cbr 1000 ------- 2 1.0 2.0 131 151
r 1.148608 1 2 tcp 1040 ------- 3 4.0 5.0 5 147
+ 1.148608 2 5 tcp 1040 ------- 3 4.0 5.0 5 147
- 1.148608 2 5 tcp 1040 ------- 3 4.0 5.0 5 147
r 1.14944 1 2 tcp 1040 ------- 1 0.0 3.0 6 146
+ 1.14944 2 3 tcp 1040 ------- 1 0.0 3.0 6 146
- 1.14944 2 3 tcp 1040 ------- 1 0.0 3.0 6 146
r 1.150272 1 2 tcp 1040 ------- 3 4.0 5.0 6 148
+ 1.150272 2 5 tcp 1040 ------- 3 4.0 5.0 6 148
- 1.150272 2 5 tcp 1040 ------- 3 4.0 5.0 6 148
r 1.151072 1 2 cbr 1000 ------- 2 1.0 2.0 130 150
r 1.15528 2 3 tcp 1040 ------- 1 0.0 3.0 3 140
+ 1.15528 3 2 ack 40 ------- 1 3.0 0.0 3 152
- 1.15528 3 2 ack 40 ------- 1 3.0 0.0 3 152
+ 1.156 1 2 cbr 1000 ------- 2 1.0 2.0 132 153
- 1.156 1 2 cbr 1000 ------- 2 1.0 2.0 132 153
r 1.156112 2 5 tcp 1040 ------- 3 4.0 5.0 3 142
+ 1.156112 5 2 ack 40 ------- 3 5.0 4.0 3 154
- 1.156112 5 2 ack 40 ------- 3 5.0 4.0 3 154
r 1.156944 2 3 tcp 1040 ------- 1 0.0 3.0 4 141
+ 1.156944 3 2 ack 40 ------- 1 3.0 0.0 4 155
- 1.156944 3 2 ack 40 ------- 1 3.0 0.0 4 155
r 1.157776 2 5 tcp 1040 ------- 3 4.0 5.0 4 143
+ 1.157776 5 2 ack 40 ------- 3 5.0 4.0 4 156
- 1.157776 5 2 ack 40 ------- 3 5.0 4.0 4 156
r 1.158608 2 3 tcp 1040 ------- 1 0.0 3.0 5 145
+ 1.158608 3 2 ack 40 ------- 1 3.0 0.0 5 157
- 1.158608 3 2 ack 40 ------- 1 3.0 0.0 5 157
r 1.1588 1 2 cbr 1000 ------- 2 1.0 2.0 131 151
r 1.15944 2 5 tcp 1040 ------- 3 4.0 5.0 5 147
+ 1.15944 5 2 ack 40 ------- 3 5.0 4.0 5 158
- 1.15944 5 2 ack 40 ------- 3 5.0 4.0 5 158
r 1.160272 2 3 tcp 1040 ------- 1 0.0 3.0 6 146
+ 1.160272 3 2 ack 40 ------- 1 3.0 0.0 6 159
- 1.160272 3 2 ack 40 ------- 1 3.0 0.0 6 159
r 1.161104 2 5 tcp 1040 ------- 3 4.0 5.0 6 148
+ 1.161104 5 2 ack 40 ------- 3 5.0 4.0 6 160
- 1.161104 5 2 ack 40 ------- 3 5.0 4.0 6 160
+ 1.164 1 2 cbr 1000 ------- 2 1.0 2.0 133 161
- 1.164 1 2 cbr 1000 ------- 2 1.0 2.0 133 161
r 1.165312 3 2 ack 40 ------- 1 3.0 0.0 3 152
+ 1.165312 2 1 ack 40 ------- 1 3.0 0.0 3 152
- 1.165312 2 1 ack 40 ------- 1 3.0 0.0 3 152
r 1.166144 5 2 ack 40 ------- 3 5.0 4.0 3 154
+ 1.166144 2 1 ack 40 ------- 3 5.0 4.0 3 154
- 1.166144 2 1 ack 40 ------- 3 5.0 4.0 3 154
r 1.1668 1 2 cbr 1000 ------- 2 1.0 2.0 132 153
r 1.166976 3 2 ack 40 ------- 1 3.0 0.0 4 155
+ 1.166976 2 1 ack 40 ------- 1 3.0 0.0 4 155
- 1.166976 2 1 ack 40 ------- 1 3.0 0.0 4 155
r 1.167808 5 2 ack 40 ------- 3 5.0 4.0 4 156
+ 1.167808 2 1 ack 40 ------- 3 5.0 4.0 4 156
- 1.167808 2 1 ack 40 ------- 3 5.0 4.0 4 156
r 1.16864 3 2 ack 40 ------- 1 3.0 0.0 5 157
+ 1.16864 2 1 ack 40 ------- 1 3.0 0.0 5 157
- 1.16864 2 1 ack 40 ------- 1 3.0 0.0 5 157
r 1.169472 5 2 ack 40 ------- 3 5.0 4.0 5 158
+ 1.169472 2 1 ack 40 ------- 3 5.0 4.0 5 158
- 1.169472 2 1 ack 40 ------- 3 5.0 4.0 5 158
r 1.170304 3 2 ack 40 ------- 1 3.0 0.0 6 159
+ 1.170304 2 1 ack 40 ------- 1 3.0 0.0 6 159
- 1.170304 2 1 ack 40 ------- 1 3.0 0.0 6 159
r 1.171136 5 2 ack 40 ------- 3 5.0 4.0 6 160
+ 1.171136 2 1 ack 40 ------- 3 5.0 4.0 6 160
- 1.171136 2 1 ack 40 ------- 3 5.0 4.0 6 160
+ 1.172 1 2 cbr 1000 ------- 2 1.0 2.0 134 162
- 1.172 1 2 cbr 1000 ------- 2 1.0 2.0 134 162
r 1.1748 1 2 cbr 1000 ------- 2 1.0 2.0 133 161
r 1.175344 2 1 ack 40 ------- 1 3.0 0.0 3 152
+ 1.175344 1 0 ack 40 ------- 1 3.0 0.0 3 152
- 1.175344 1 0 ack 40 ------- 1 3.0 0.0 3 152
r 1.176176 2 1 ack 40 ------- 3 5.0 4.0 3 154
+ 1.176176 1 4 ack 40 ------- 3 5.0 4.0 3 154
- 1.176176 1 4 ack 40 ------- 3 5.0 4.0 3 154
r 1.177008 2 1 ack 40 ------- 1 3.0 0.0 4 155
+ 1.177008 1 0 ack 40 ------- 1 3.0 0.0 4 155
- 1.177008 1 0 ack 40 ------- 1 3.0 0.0 4 155
r 1.17784 2 1 ack 40 ------- 3 5.0 4.0 4 156
+ 1.17784 1 4 ack 40 ------- 3 5.0 4.0 4 156
- 1.17784 1 4 ack 40 ------- 3 5.0 4.0 4 156
r 1.178672 2 1 ack 40 ------- 1 3.0 0.0 5 157
+ 1.178672 1 0 ack 40 ------- 1 3.0 0.0 5 157
- 1.178672 1 0 ack 40 ------- 1 3.0 0.0 5 157
r 1.179504 2 1 ack 40 ------- 3 5.0 4.0 5 158
+ 1.179504 1 4 ack 40 ------- 3 5.0 4.0 5 158
- 1.179504 1 4 ack 40 ------- 3 5.0 4.0 5 158
+ 1.18 1 2 cbr 1000 ------- 2 1.0 2.0 135 163
- 1.18 1 2 cbr 1000 ------- 2 1.0 2.0 135 163
r 1.180336 2 1 ack 40 ------- 1 3.0 0.0 6 159
+ 1.180336 1 0 ack 40 ------- 1 3.0 0.0 6 159
- 1.180336 1 0 ack 40 ------- 1 3.0 0.0 6 159
r 1.181168 2 1 ack 40 ------- 3 5.0 4.0 6 160
+ 1.181168 1 4 ack 40 ------- 3 5.0 4.0 6 160
- 1.181168 1 4 ack 40 ------- 3 5.0 4.0 6 160
r 1.1828 1 2 cbr 1000 ------- 2 1.0 2.0 134 162
r 1.185376 1 0 ack 40 ------- 1 3.0 0.0 3 152